Program Version,EnergyPlus, Version 9.1.0-08d2e308bb, YMD=2019.08.29 00:36
1,5,Environment Title[],Latitude[deg],Longitude[deg],Time Zone[],Elevation[m]
2,8,Day of Simulation[],Month[],Day of Month[],DST Indicator[1=yes 0=no],Hour[],StartMinute[],EndMinute[],DayType
3,5,Cumulative Day of Simulation[],Month[],Day of Month[],DST Indicator[1=yes 0=no],DayType  ! When Daily Report Variables Requested
4,2,Cumulative Days of Simulation[],Month[]  ! When Monthly Report Variables Requested
5,1,Cumulative Days of Simulation[] ! When Run Period Report Variables Requested
6,1,Calendar Year of Simulation[] ! When Annual Report Variables Requested
7,9,Environment,Site Outdoor Air Drybulb Temperature [C] !Monthly [Value,Min,Day,Hour,Minute,Max,Day,Hour,Minute]
8,1,Environment,Site Outdoor Air Wetbulb Temperature [C] !TimeStep
95,1,DEFAULT,Zone Air Temperature [C] !Hourly
96,7,DEFAULT,Zone Air Relative Humidity [%] !Daily [Value,Min,Hour,Minute,Max,Hour,Minute]
End of Data Dictionary
1,RUN PERIOD 1,  37.62,-122.38,  -8.00,   5.00
2,1, 1, 1, 0, 1, 0.00,10.00,Sunday
8,1.3919868542671108
2,1, 1, 1, 0, 1,10.00,20.00,Sunday
8,1.7042952297883228
2,1, 1, 1, 0, 1,20.00,30.00,Sunday
8,2.0176262286830388
2,1, 1, 1, 0, 1,30.00,40.00,Sunday
8,2.3319736681463598
2,1, 1, 1, 0, 1,40.00,50.00,Sunday
8,2.6473599951626869
2,1, 1, 1, 0, 1,50.00,60.00,Sunday
8,2.963779646820472
2,1, 1, 1, 0, 1, 0.00,60.00,Sunday
95,9.585289776035827
2,1, 1, 1, 0, 2, 0.00,10.00,Sunday
8,2.8962011537397709
2,1, 1, 1, 0, 2,10.00,20.00,Sunday
8,2.826950273053411
2,1, 1, 1, 0, 2,20.00,30.00,Sunday
8,2.756004734661964
2,1, 1, 1, 0, 2,30.00,40.00,Sunday
8,2.683339918829643
2,1, 1, 1, 0, 2,40.00,50.00,Sunday
8,2.6089381335555954
2,1, 1, 1, 0, 2,50.00,60.00,Sunday
8,2.53277123558979
2,1, 1, 1, 0, 2, 0.00,60.00,Sunday
95,9.324968038481643
2,1, 1, 1, 0, 3, 0.00,10.00,Sunday
8,2.35731728364408
2,1, 1, 1, 0, 3,10.00,20.00,Sunday
8,2.1799868987999555
2,1, 1, 1, 0, 3,20.00,30.00,Sunday
8,2.0008075794744184
2,1, 1, 1, 0, 3,30.00,40.00,Sunday
8,1.8197996241626525
2,1, 1, 1, 0, 3,40.00,50.00,Sunday
8,1.6369866031765064
2,1, 1, 1, 0, 3,50.00,60.00,Sunday
8,1.4523900767964169
2,1, 1, 1, 0, 3, 0.00,60.00,Sunday
95,9.095861496633044
2,1, 1, 1, 0, 4, 0.00,10.00,Sunday
8,1.5588493625108369
2,1, 1, 1, 0, 4,10.00,20.00,Sunday
8,1.6640639689744664
2,1, 1, 1, 0, 4,20.00,30.00,Sunday
8,1.768016917431353
2,1, 1, 1, 0, 4,30.00,40.00,Sunday
8,1.8706957836474552
2,1, 1, 1, 0, 4,40.00,50.00,Sunday
8,1.972086502077769
2,1, 1, 1, 0, 4,50.00,60.00,Sunday
8,2.0721768396791195
2,1, 1, 1, 0, 4, 0.00,60.00,Sunday
95,8.894835142655518
2,1, 1, 1, 0, 5, 0.00,10.00,Sunday
8,1.8708485409686815
2,1, 1, 1, 0, 5,10.00,20.00,Sunday
8,1.6643427034755414
2,1, 1, 1, 0, 5,20.00,30.00,Sunday
8,1.4527686993017022
2,1, 1, 1, 0, 5,30.00,40.00,Sunday
8,1.236227606888982
2,1, 1, 1, 0, 5,40.00,50.00,Sunday
8,1.0148282162686407
2,1, 1, 1, 0, 5,50.00,60.00,Sunday
8,0.7886660307371054
2,1, 1, 1, 0, 5, 0.00,60.00,Sunday
95,8.692729109976427
2,1, 1, 1, 0, 6, 0.00,10.00,Sunday
8,0.7886660307371054
2,1, 1, 1, 0, 6,10.00,20.00,Sunday
8,0.7886660307371054
2,1, 1, 1, 0, 6,20.00,30.00,Sunday
8,0.7886660307371054
2,1, 1, 1, 0, 6,30.00,40.00,Sunday
8,0.7886660307371054
2,1, 1, 1, 0, 6,40.00,50.00,Sunday
8,0.7886660307371054
2,1, 1, 1, 0, 6,50.00,60.00,Sunday
8,0.7886660307371054
2,1, 1, 1, 0, 6, 0.00,60.00,Sunday
95,8.48291141800304
2,1, 1, 1, 0, 7, 0.00,10.00,Sunday
8,0.7887508053017357
2,1, 1, 1, 0, 7,10.00,20.00,Sunday
8,0.7888387824776179
2,1, 1, 1, 0, 7,20.00,30.00,Sunday
8,0.7889264801397018
2,1, 1, 1, 0, 7,30.00,40.00,Sunday
8,0.7890103630453779
2,1, 1, 1, 0, 7,40.00,50.00,Sunday
8,0.7891001783414231
2,1, 1, 1, 0, 7,50.00,60.00,Sunday
8,0.7891869862994808
2,1, 1, 1, 0, 7, 0.00,60.00,Sunday
95,8.264473473995638
2,1, 1, 1, 0, 8, 0.00,10.00,Sunday
8,0.8691058768009429
2,1, 1, 1, 0, 8,10.00,20.00,Sunday
8,0.9490198499061305
2,1, 1, 1, 0, 8,20.00,30.00,Sunday
8,1.0289313988312328
2,1, 1, 1, 0, 8,30.00,40.00,Sunday
8,1.1088359850217109
2,1, 1, 1, 0, 8,40.00,50.00,Sunday
8,1.188735494279432
2,1, 1, 1, 0, 8,50.00,60.00,Sunday
8,1.2686308809009304
2,1, 1, 1, 0, 8, 0.00,60.00,Sunday
95,8.058468820004034
2,1, 1, 1, 0, 9, 0.00,10.00,Sunday
8,1.4066822784468863
2,1, 1, 1, 0, 9,10.00,20.00,Sunday
8,1.5450537299822947
2,1, 1, 1, 0, 9,20.00,30.00,Sunday
8,1.6837393480798129
2,1, 1, 1, 0, 9,30.00,40.00,Sunday
8,1.8227345997303078
2,1, 1, 1, 0, 9,40.00,50.00,Sunday
8,1.9620464875595059
2,1, 1, 1, 0, 9,50.00,60.00,Sunday
8,2.101678247435091
2,1, 1, 1, 0, 9, 0.00,60.00,Sunday
95,7.958945917477675
2,1, 1, 1, 0,10, 0.00,10.00,Sunday
8,2.3793166041368556
2,1, 1, 1, 0,10,10.00,20.00,Sunday
8,2.648834050246281
2,1, 1, 1, 0,10,20.00,30.00,Sunday
8,2.910021747901583
2,1, 1, 1, 0,10,30.00,40.00,Sunday
8,3.162634841105653
2,1, 1, 1, 0,10,40.00,50.00,Sunday
8,3.406458143475985
2,1, 1, 1, 0,10,50.00,60.00,Sunday
8,3.64122944584253
2,1, 1, 1, 0,10, 0.00,60.00,Sunday
95,8.058908064098212
2,1, 1, 1, 0,11, 0.00,10.00,Sunday
8,3.792747085483413
2,1, 1, 1, 0,11,10.00,20.00,Sunday
8,3.9446303661577457
2,1, 1, 1, 0,11,20.00,30.00,Sunday
8,4.096864372685255
2,1, 1, 1, 0,11,30.00,40.00,Sunday
8,4.249454838811149
2,1, 1, 1, 0,11,40.00,50.00,Sunday
8,4.402397877019624
2,1, 1, 1, 0,11,50.00,60.00,Sunday
8,4.555688079961096
2,1, 1, 1, 0,11, 0.00,60.00,Sunday
95,8.38663303055632
2,1, 1, 1, 0,12, 0.00,10.00,Sunday
8,4.573688332746462
2,1, 1, 1, 0,12,10.00,20.00,Sunday
8,4.5908650588924699
2,1, 1, 1, 0,12,20.00,30.00,Sunday
8,4.6072197984994
2,1, 1, 1, 0,12,30.00,40.00,Sunday
8,4.622739372095066
2,1, 1, 1, 0,12,40.00,50.00,Sunday
8,4.637410742432435
2,1, 1, 1, 0,12,50.00,60.00,Sunday
8,4.651235861897762
2,1, 1, 1, 0,12, 0.00,60.00,Sunday
95,8.96168159980873
2,1, 1, 1, 0,13, 0.00,10.00,Sunday
8,4.701588660478254
2,1, 1, 1, 0,13,10.00,20.00,Sunday
8,4.751730377296168
2,1, 1, 1, 0,13,20.00,30.00,Sunday
8,4.801658709470807
2,1, 1, 1, 0,13,30.00,40.00,Sunday
8,4.8513862776727338
2,1, 1, 1, 0,13,40.00,50.00,Sunday
8,4.900895134068251
2,1, 1, 1, 0,13,50.00,60.00,Sunday
8,4.9501978546427118
2,1, 1, 1, 0,13, 0.00,60.00,Sunday
95,9.594455175076777
2,1, 1, 1, 0,14, 0.00,10.00,Sunday
8,4.802628279813403
2,1, 1, 1, 0,14,10.00,20.00,Sunday
8,4.65440500980188
2,1, 1, 1, 0,14,20.00,30.00,Sunday
8,4.5055194279289039
2,1, 1, 1, 0,14,30.00,40.00,Sunday
8,4.3559678132808
2,1, 1, 1, 0,14,40.00,50.00,Sunday
8,4.205746080284951
2,1, 1, 1, 0,14,50.00,60.00,Sunday
8,4.054852868340429
2,1, 1, 1, 0,14, 0.00,60.00,Sunday
95,10.115336634632586
2,1, 1, 1, 0,15, 0.00,10.00,Sunday
8,3.93447943846546
2,1, 1, 1, 0,15,10.00,20.00,Sunday
8,3.8109998910776685
2,1, 1, 1, 0,15,20.00,30.00,Sunday
8,3.684363291519797
2,1, 1, 1, 0,15,30.00,40.00,Sunday
8,3.5545066005663568
2,1, 1, 1, 0,15,40.00,50.00,Sunday
8,3.4213716543822096
2,1, 1, 1, 0,15,50.00,60.00,Sunday
8,3.2849010408876588
2,1, 1, 1, 0,15, 0.00,60.00,Sunday
95,10.547836636903205
2,1, 1, 1, 0,16, 0.00,10.00,Sunday
8,3.203234104905904
2,1, 1, 1, 0,16,10.00,20.00,Sunday
8,3.1215385106565578
2,1, 1, 1, 0,16,20.00,30.00,Sunday
8,3.0398179496365449
2,1, 1, 1, 0,16,30.00,40.00,Sunday
8,2.958068431408215
2,1, 1, 1, 0,16,40.00,50.00,Sunday
8,2.8762923315299218
2,1, 1, 1, 0,16,50.00,60.00,Sunday
8,2.7944860809073415
2,1, 1, 1, 0,16, 0.00,60.00,Sunday
95,10.895788444821362
2,1, 1, 1, 0,17, 0.00,10.00,Sunday
8,2.839788403544176
2,1, 1, 1, 0,17,10.00,20.00,Sunday
8,2.8838479676954447
2,1, 1, 1, 0,17,20.00,30.00,Sunday
8,2.926678399691611
2,1, 1, 1, 0,17,30.00,40.00,Sunday
8,2.9682968249765175
2,1, 1, 1, 0,17,40.00,50.00,Sunday
8,3.0087138150543799
2,1, 1, 1, 0,17,50.00,60.00,Sunday
8,3.0479399229984698
2,1, 1, 1, 0,17, 0.00,60.00,Sunday
95,10.961337504531484
2,1, 1, 1, 0,18, 0.00,10.00,Sunday
8,3.085325036847454
2,1, 1, 1, 0,18,10.00,20.00,Sunday
8,3.121169590872892
2,1, 1, 1, 0,18,20.00,30.00,Sunday
8,3.1554951174781298
2,1, 1, 1, 0,18,30.00,40.00,Sunday
8,3.1883214113514004
2,1, 1, 1, 0,18,40.00,50.00,Sunday
8,3.2196647879052286
2,1, 1, 1, 0,18,50.00,60.00,Sunday
8,3.2495446655756687
2,1, 1, 1, 0,18, 0.00,60.00,Sunday
95,10.951867452887612
2,1, 1, 1, 0,19, 0.00,10.00,Sunday
8,3.1025757139219034
2,1, 1, 1, 0,19,10.00,20.00,Sunday
8,2.952600016252256
2,1, 1, 1, 0,19,20.00,30.00,Sunday
8,2.7996597314734679
2,1, 1, 1, 0,19,30.00,40.00,Sunday
8,2.643795578218757
2,1, 1, 1, 0,19,40.00,50.00,Sunday
8,2.485061520611704
2,1, 1, 1, 0,19,50.00,60.00,Sunday
8,2.323502314991664
2,1, 1, 1, 0,19, 0.00,60.00,Sunday
95,10.922320948799678
2,1, 1, 1, 0,20, 0.00,10.00,Sunday
8,2.318535772733396
2,1, 1, 1, 0,20,10.00,20.00,Sunday
8,2.3128893198864137
2,1, 1, 1, 0,20,20.00,30.00,Sunday
8,2.3065697336964039
2,1, 1, 1, 0,20,30.00,40.00,Sunday
8,2.299585167784411
2,1, 1, 1, 0,20,40.00,50.00,Sunday
8,2.2919395956941028
2,1, 1, 1, 0,20,50.00,60.00,Sunday
8,2.2836349766896006
2,1, 1, 1, 0,20, 0.00,60.00,Sunday
95,10.819483135782619
2,1, 1, 1, 0,21, 0.00,10.00,Sunday
8,2.2919395956941028
2,1, 1, 1, 0,21,10.00,20.00,Sunday
8,2.299585167784411
2,1, 1, 1, 0,21,20.00,30.00,Sunday
8,2.3065697336964039
2,1, 1, 1, 0,21,30.00,40.00,Sunday
8,2.3128893198864137
2,1, 1, 1, 0,21,40.00,50.00,Sunday
8,2.318535772733396
2,1, 1, 1, 0,21,50.00,60.00,Sunday
8,2.323502314991664
2,1, 1, 1, 0,21, 0.00,60.00,Sunday
95,10.66216766929154
2,1, 1, 1, 0,22, 0.00,10.00,Sunday
8,2.2623355280342065
2,1, 1, 1, 0,22,10.00,20.00,Sunday
8,2.1990831397505556
2,1, 1, 1, 0,22,20.00,30.00,Sunday
8,2.133767443445751
2,1, 1, 1, 0,22,30.00,40.00,Sunday
8,2.066423510151455
2,1, 1, 1, 0,22,40.00,50.00,Sunday
8,1.9970729464364255
2,1, 1, 1, 0,22,50.00,60.00,Sunday
8,1.9257442890430643
2,1, 1, 1, 0,22, 0.00,60.00,Sunday
95,10.416961913801743
2,1, 1, 1, 0,23, 0.00,10.00,Sunday
8,1.8806004912196988
2,1, 1, 1, 0,23,10.00,20.00,Sunday
8,1.8351738491055534
2,1, 1, 1, 0,23,20.00,30.00,Sunday
8,1.7894613028739753
2,1, 1, 1, 0,23,30.00,40.00,Sunday
8,1.743468304559735
2,1, 1, 1, 0,23,40.00,50.00,Sunday
8,1.6971976502962694
2,1, 1, 1, 0,23,50.00,60.00,Sunday
8,1.6506436112154324
2,1, 1, 1, 0,23, 0.00,60.00,Sunday
95,10.120220745347512
2,1, 1, 1, 0,24, 0.00,10.00,Sunday
8,1.5556716767645027
2,1, 1, 1, 0,24,10.00,20.00,Sunday
8,1.4606931883226023
2,1, 1, 1, 0,24,20.00,30.00,Sunday
8,1.3657051939480518
2,1, 1, 1, 0,24,30.00,40.00,Sunday
8,1.2707094250534937
2,1, 1, 1, 0,24,40.00,50.00,Sunday
8,1.1757055884052559
2,1, 1, 1, 0,24,50.00,60.00,Sunday
8,1.0806949389403647
2,1, 1, 1, 0,24, 0.00,60.00,Sunday
95,9.823358466429453
3,1, 1, 1, 0,Sunday
96,50.749066263020647,46.09316474185999,17,40,56.46930791934729, 9,50
2,2, 1, 2, 0, 1, 0.00,10.00,Monday
8,1.122776045235343
2,2, 1, 2, 0, 1,10.00,20.00,Monday
8,1.1648098611696245
2,2, 1, 2, 0, 1,20.00,30.00,Monday
8,1.206796424794439
2,2, 1, 2, 0, 1,30.00,40.00,Monday
8,1.248733155485242
2,2, 1, 2, 0, 1,40.00,50.00,Monday
8,1.290620088759744
2,2, 1, 2, 0, 1,50.00,60.00,Monday
8,1.3324599814095788
2,2, 1, 2, 0, 1, 0.00,60.00,Monday
95,9.546004234779508
2,2, 1, 2, 0, 2, 0.00,10.00,Monday
8,1.2419082639194148
2,2, 1, 2, 0, 2,10.00,20.00,Monday
8,1.1514322202628516
2,2, 1, 2, 0, 2,20.00,30.00,Monday
8,1.06102384030355
2,2, 1, 2, 0, 2,30.00,40.00,Monday
8,0.970687476335936
2,2, 1, 2, 0, 2,40.00,50.00,Monday
8,0.8804232890798489
2,2, 1, 2, 0, 2,50.00,60.00,Monday
8,0.7902296703854841
2,2, 1, 2, 0, 2, 0.00,60.00,Monday
95,9.273638847146389
2,2, 1, 2, 0, 3, 0.00,10.00,Monday
8,0.6549641990008319
2,2, 1, 2, 0, 3,10.00,20.00,Monday
8,0.5189503230015581
2,2, 1, 2, 0, 3,20.00,30.00,Monday
8,0.38219176231174359
2,2, 1, 2, 0, 3,30.00,40.00,Monday
8,0.2446923479132694
2,2, 1, 2, 0, 3,40.00,50.00,Monday
8,0.10646184277829132
2,2, 1, 2, 0, 3,50.00,60.00,Monday
8,-0.030328349134290827
2,2, 1, 2, 0, 3, 0.00,60.00,Monday
95,9.004081623754317
2,2, 1, 2, 0, 4, 0.00,10.00,Monday
8,0.009568617996878984
2,2, 1, 2, 0, 4,10.00,20.00,Monday
8,0.05128759148792125
2,2, 1, 2, 0, 4,20.00,30.00,Monday
8,0.0926586374941725
2,2, 1, 2, 0, 4,30.00,40.00,Monday
8,0.13367973614755813
2,2, 1, 2, 0, 4,40.00,50.00,Monday
8,0.17434693433838328
2,2, 1, 2, 0, 4,50.00,60.00,Monday
8,0.21465791318284339
2,2, 1, 2, 0, 4, 0.00,60.00,Monday
95,8.738768212070129
2,2, 1, 2, 0, 5, 0.00,10.00,Monday
8,0.17426275840991249
2,2, 1, 2, 0, 5,10.00,20.00,Monday
8,0.13352180310716345
2,2, 1, 2, 0, 5,20.00,30.00,Monday
8,0.09243807192270162
2,2, 1, 2, 0, 5,30.00,40.00,Monday
8,0.0510088075396084
2,2, 1, 2, 0, 5,40.00,50.00,Monday
8,0.009239496337647308
2,2, 1, 2, 0, 5,50.00,60.00,Monday
8,-0.030679156355460817
2,2, 1, 2, 0, 5, 0.00,60.00,Monday
95,8.472493361746763
2,2, 1, 2, 0, 6, 0.00,10.00,Monday
8,0.0480308284406628
2,2, 1, 2, 0, 6,10.00,20.00,Monday
8,0.12892523119888789
2,2, 1, 2, 0, 6,20.00,30.00,Monday
8,0.2098150188615511
2,2, 1, 2, 0, 6,30.00,40.00,Monday
8,0.29070189191130388
2,2, 1, 2, 0, 6,40.00,50.00,Monday
8,0.37158562528016655
2,2, 1, 2, 0, 6,50.00,60.00,Monday
8,0.4524648809280515
2,2, 1, 2, 0, 6, 0.00,60.00,Monday
95,8.206677718381127
2,2, 1, 2, 0, 7, 0.00,10.00,Monday
8,0.2647101263878154
2,2, 1, 2, 0, 7,10.00,20.00,Monday
8,0.07710005910836428
2,2, 1, 2, 0, 7,20.00,30.00,Monday
8,-0.10424160225183278
2,2, 1, 2, 0, 7,30.00,40.00,Monday
8,-0.28216496241346886
2,2, 1, 2, 0, 7,40.00,50.00,Monday
8,-0.4601102453748065
2,2, 1, 2, 0, 7,50.00,60.00,Monday
8,-0.6380810066339436
2,2, 1, 2, 0, 7, 0.00,60.00,Monday
95,7.945836145267747
2,2, 1, 2, 0, 8, 0.00,10.00,Monday
8,-0.5369116747654933
2,2, 1, 2, 0, 8,10.00,20.00,Monday
8,-0.43571819562186217
2,2, 1, 2, 0, 8,20.00,30.00,Monday
8,-0.33449763467823798
2,2, 1, 2, 0, 8,30.00,40.00,Monday
8,-0.23325014807326406
2,2, 1, 2, 0, 8,40.00,50.00,Monday
8,-0.13197811972413779
2,2, 1, 2, 0, 8,50.00,60.00,Monday
8,-0.030679156355460817
2,2, 1, 2, 0, 8, 0.00,60.00,Monday
95,7.708370587958394
2,2, 1, 2, 0, 9, 0.00,10.00,Monday
8,0.2246203167456983
2,2, 1, 2, 0, 9,10.00,20.00,Monday
8,0.47842722920949196
2,2, 1, 2, 0, 9,20.00,30.00,Monday
8,0.7284833595001983
2,2, 1, 2, 0, 9,30.00,40.00,Monday
8,0.9747096045275305
2,2, 1, 2, 0, 9,40.00,50.00,Monday
8,1.2170496343309246
2,2, 1, 2, 0, 9,50.00,60.00,Monday
8,1.4554211378261235
2,2, 1, 2, 0, 9, 0.00,60.00,Monday
95,7.541910323470212
2,2, 1, 2, 0,10, 0.00,10.00,Monday
8,1.6732535645522536
2,2, 1, 2, 0,10,10.00,20.00,Monday
8,1.8901943151503947
2,2, 1, 2, 0,10,20.00,30.00,Monday
8,2.106236014117207
2,2, 1, 2, 0,10,30.00,40.00,Monday
8,2.3213742925090399
2,2, 1, 2, 0,10,40.00,50.00,Monday
8,2.5355996773254745
2,2, 1, 2, 0,10,50.00,60.00,Monday
8,2.7489059359567036
2,2, 1, 2, 0,10, 0.00,60.00,Monday
95,7.579253584198065
2,2, 1, 2, 0,11, 0.00,10.00,Monday
8,2.8993832160437886
2,2, 1, 2, 0,11,10.00,20.00,Monday
8,3.0491650509202796
2,2, 1, 2, 0,11,20.00,30.00,Monday
8,3.1982475012706819
2,2, 1, 2, 0,11,30.00,40.00,Monday
8,3.3466196894287005
2,2, 1, 2, 0,11,40.00,50.00,Monday
8,3.494279660306978
2,2, 1, 2, 0,11,50.00,60.00,Monday
8,3.64122944584253
2,2, 1, 2, 0,11, 0.00,60.00,Monday
95,7.74502200275406
2,2, 1, 2, 0,12, 0.00,10.00,Monday
8,3.7719821624266638
2,2, 1, 2, 0,12,10.00,20.00,Monday
8,3.9020549280036884
2,2, 1, 2, 0,12,20.00,30.00,Monday
8,4.031455085791539
2,2, 1, 2, 0,12,30.00,40.00,Monday
8,4.160171634370449
2,2, 1, 2, 0,12,40.00,50.00,Monday
8,4.288198344736783
2,2, 1, 2, 0,12,50.00,60.00,Monday
8,4.415531704592467
2,2, 1, 2, 0,12, 0.00,60.00,Monday
95,8.080582169705855
2,2, 1, 2, 0,13, 0.00,10.00,Monday
8,4.555425806285245
2,2, 1, 2, 0,13,10.00,20.00,Monday
8,4.694849612240812
2,2, 1, 2, 0,13,20.00,30.00,Monday
8,4.833808767927281
2,2, 1, 2, 0,13,30.00,40.00,Monday
8,4.972284747971387
2,2, 1, 2, 0,13,40.00,50.00,Monday
8,5.110282241502357
2,2, 1, 2, 0,13,50.00,60.00,Monday
8,5.247809776611516
2,2, 1, 2, 0,13, 0.00,60.00,Monday
95,8.554833030778135
2,2, 1, 2, 0,14, 0.00,10.00,Monday
8,5.088556541542437
2,2, 1, 2, 0,14,10.00,20.00,Monday
8,4.929706389357986
2,2, 1, 2, 0,14,20.00,30.00,Monday
8,4.771269138733105
2,2, 1, 2, 0,14,30.00,40.00,Monday
8,4.61323239587654
2,2, 1, 2, 0,14,40.00,50.00,Monday
8,4.455607130119455
2,2, 1, 2, 0,14,50.00,60.00,Monday
8,4.2984005982041959
2,2, 1, 2, 0,14, 0.00,60.00,Monday
95,8.99833245041567
2,2, 1, 2, 0,15, 0.00,10.00,Monday
8,4.36371094419658
2,2, 1, 2, 0,15,10.00,20.00,Monday
8,4.427168768570647
2,2, 1, 2, 0,15,20.00,30.00,Monday
8,4.488753839613084
2,2, 1, 2, 0,15,30.00,40.00,Monday
8,4.548428976401147
2,2, 1, 2, 0,15,40.00,50.00,Monday
8,4.606175794676992
2,2, 1, 2, 0,15,50.00,60.00,Monday
8,4.661975715246004
2,2, 1, 2, 0,15, 0.00,60.00,Monday
95,9.32400575203149
2,2, 1, 2, 0,16, 0.00,10.00,Monday
8,4.661975715246004
2,2, 1, 2, 0,16,10.00,20.00,Monday
8,4.661975715246004
2,2, 1, 2, 0,16,20.00,30.00,Monday
8,4.661975715246004
2,2, 1, 2, 0,16,30.00,40.00,Monday
8,4.661975715246004
2,2, 1, 2, 0,16,40.00,50.00,Monday
8,4.661975715246004
2,2, 1, 2, 0,16,50.00,60.00,Monday
8,4.661975715246004
2,2, 1, 2, 0,16, 0.00,60.00,Monday
95,9.641243514175978
2,2, 1, 2, 0,17, 0.00,10.00,Monday
8,4.720249494182268
2,2, 1, 2, 0,17,10.00,20.00,Monday
8,4.7784224715080338
2,2, 1, 2, 0,17,20.00,30.00,Monday
8,4.836495158014256
2,2, 1, 2, 0,17,30.00,40.00,Monday
8,4.89446273935704
2,2, 1, 2, 0,17,40.00,50.00,Monday
8,4.952332803691206
2,2, 1, 2, 0,17,50.00,60.00,Monday
8,5.010098322595177
2,2, 1, 2, 0,17, 0.00,60.00,Monday
95,9.707940396089916
2,2, 1, 2, 0,18, 0.00,10.00,Monday
8,4.892840885955648
2,2, 1, 2, 0,18,10.00,20.00,Monday
8,4.774834537884253
2,2, 1, 2, 0,18,20.00,30.00,Monday
8,4.656081152740488
2,2, 1, 2, 0,18,30.00,40.00,Monday
8,4.536579343146164
2,2, 1, 2, 0,18,40.00,50.00,Monday
8,4.416340090674567
2,2, 1, 2, 0,18,50.00,60.00,Monday
8,4.295371805752469
2,2, 1, 2, 0,18, 0.00,60.00,Monday
95,9.762982220216009
2,2, 1, 2, 0,19, 0.00,10.00,Monday
8,4.357705848728225
2,2, 1, 2, 0,19,10.00,20.00,Monday
8,4.418523498070413
2,2, 1, 2, 0,19,20.00,30.00,Monday
8,4.477846405367253
2,2, 1, 2, 0,19,30.00,40.00,Monday
8,4.53568737879333
2,2, 1, 2, 0,19,40.00,50.00,Monday
8,4.592067332718881
2,2, 1, 2, 0,19,50.00,60.00,Monday
8,4.647007224873074
2,2, 1, 2, 0,19, 0.00,60.00,Monday
95,9.801638176353391
2,2, 1, 2, 0,20, 0.00,10.00,Monday
8,4.777520748348572
2,2, 1, 2, 0,20,10.00,20.00,Monday
8,4.907525027093785
2,2, 1, 2, 0,20,20.00,30.00,Monday
8,5.037018011161129
2,2, 1, 2, 0,20,30.00,40.00,Monday
8,5.166007102274623
2,2, 1, 2, 0,20,40.00,50.00,Monday
8,5.294494773631488
2,2, 1, 2, 0,20,50.00,60.00,Monday
8,5.422483731759324
2,2, 1, 2, 0,20, 0.00,60.00,Monday
95,9.785157214353348
2,2, 1, 2, 0,21, 0.00,10.00,Monday
8,5.460782918409211
2,2, 1, 2, 0,21,10.00,20.00,Monday
8,5.499033639505802
2,2, 1, 2, 0,21,20.00,30.00,Monday
8,5.537245456955602
2,2, 1, 2, 0,21,30.00,40.00,Monday
8,5.575408924749797
2,2, 1, 2, 0,21,40.00,50.00,Monday
8,5.613529016891168
2,2, 1, 2, 0,21,50.00,60.00,Monday
8,5.651605645076197
2,2, 1, 2, 0,21, 0.00,60.00,Monday
95,9.729027101716609
2,2, 1, 2, 0,22, 0.00,10.00,Monday
8,5.651605645076197
2,2, 1, 2, 0,22,10.00,20.00,Monday
8,5.651605645076197
2,2, 1, 2, 0,22,20.00,30.00,Monday
8,5.651605645076197
2,2, 1, 2, 0,22,30.00,40.00,Monday
8,5.651605645076197
2,2, 1, 2, 0,22,40.00,50.00,Monday
8,5.651605645076197
2,2, 1, 2, 0,22,50.00,60.00,Monday
8,5.651605645076197
2,2, 1, 2, 0,22, 0.00,60.00,Monday
95,9.655482187050947
2,2, 1, 2, 0,23, 0.00,10.00,Monday
8,5.5556692701682179
2,2, 1, 2, 0,23,10.00,20.00,Monday
8,5.459728093104262
2,2, 1, 2, 0,23,20.00,30.00,Monday
8,5.363781578717136
2,2, 1, 2, 0,23,30.00,40.00,Monday
8,5.267835052812783
2,2, 1, 2, 0,23,40.00,50.00,Monday
8,5.171876786499925
2,2, 1, 2, 0,23,50.00,60.00,Monday
8,5.0759214942120949
2,2, 1, 2, 0,23, 0.00,60.00,Monday
95,9.565997395445449
2,2, 1, 2, 0,24, 0.00,10.00,Monday
8,5.03296208487932
2,2, 1, 2, 0,24,10.00,20.00,Monday
8,4.989702903343403
2,2, 1, 2, 0,24,20.00,30.00,Monday
8,4.946156454381864
2,2, 1, 2, 0,24,30.00,40.00,Monday
8,4.902319802720671
2,2, 1, 2, 0,24,40.00,50.00,Monday
8,4.858194808909678
2,2, 1, 2, 0,24,50.00,60.00,Monday
8,4.813779577855316
2,2, 1, 2, 0,24, 0.00,60.00,Monday
95,9.47031963742789
3,2, 1, 2, 0,Monday
96,52.949948568553647,49.62528171429941,19,50,58.23123136535362, 9,60
2,3, 1, 3, 0, 1, 0.00,10.00,Tuesday
8,4.716842244364297
2,3, 1, 3, 0, 1,10.00,20.00,Tuesday
8,4.619900715266021
2,3, 1, 3, 0, 1,20.00,30.00,Tuesday
8,4.522964649615497
2,3, 1, 3, 0, 1,30.00,40.00,Tuesday
8,4.426018084570945
2,3, 1, 3, 0, 1,40.00,50.00,Tuesday
8,4.329070699007407
2,3, 1, 3, 0, 1,50.00,60.00,Tuesday
8,4.2321209408958799
2,3, 1, 3, 0, 1, 0.00,60.00,Tuesday
95,9.354570666503263
2,3, 1, 3, 0, 2, 0.00,10.00,Tuesday
8,4.2791619550111339
2,3, 1, 3, 0, 2,10.00,20.00,Tuesday
8,4.326141563278124
2,3, 1, 3, 0, 2,20.00,30.00,Tuesday
8,4.373055113145848
2,3, 1, 3, 0, 2,30.00,40.00,Tuesday
8,4.419897697534868
2,3, 1, 3, 0, 2,40.00,50.00,Tuesday
8,4.466679258400711
2,3, 1, 3, 0, 2,50.00,60.00,Tuesday
8,4.513395012960044
2,3, 1, 3, 0, 2, 0.00,60.00,Tuesday
95,9.219314107387817
2,3, 1, 3, 0, 3, 0.00,10.00,Tuesday
8,4.41535280796672
2,3, 1, 3, 0, 3,10.00,20.00,Tuesday
8,4.317312690373482
2,3, 1, 3, 0, 3,20.00,30.00,Tuesday
8,4.219267309007221
2,3, 1, 3, 0, 3,30.00,40.00,Tuesday
8,4.121222129170172
2,3, 1, 3, 0, 3,40.00,50.00,Tuesday
8,4.023176764980605
2,3, 1, 3, 0, 3,50.00,60.00,Tuesday
8,3.9251208417407117
2,3, 1, 3, 0, 3, 0.00,60.00,Tuesday
95,9.075683992559578
2,3, 1, 3, 0, 4, 0.00,10.00,Tuesday
8,4.011697309710199
2,3, 1, 3, 0, 4,10.00,20.00,Tuesday
8,4.098161560270086
2,3, 1, 3, 0, 4,20.00,30.00,Tuesday
8,4.184529315499191
2,3, 1, 3, 0, 4,30.00,40.00,Tuesday
8,4.270794207501364
2,3, 1, 3, 0, 4,40.00,50.00,Tuesday
8,4.356950739236369
2,3, 1, 3, 0, 4,50.00,60.00,Tuesday
8,4.4430070839880699
2,3, 1, 3, 0, 4, 0.00,60.00,Tuesday
95,8.93790406891162
2,3, 1, 3, 0, 5, 0.00,10.00,Tuesday
8,4.407888257033014
2,3, 1, 3, 0, 5,10.00,20.00,Tuesday
8,4.37272952714642
2,3, 1, 3, 0, 5,20.00,30.00,Tuesday
8,4.337530865672472
2,3, 1, 3, 0, 5,30.00,40.00,Tuesday
8,4.302297087631768
2,3, 1, 3, 0, 5,40.00,50.00,Tuesday
8,4.267028143735633
2,3, 1, 3, 0, 5,50.00,60.00,Tuesday
8,4.231719121750865
2,3, 1, 3, 0, 5, 0.00,60.00,Tuesday
95,8.803750654197716
2,3, 1, 3, 0, 6, 0.00,10.00,Tuesday
8,4.2316503621595979
2,3, 1, 3, 0, 6,10.00,20.00,Tuesday
8,4.231581277979496
2,3, 1, 3, 0, 6,20.00,30.00,Tuesday
8,4.231520855349794
2,3, 1, 3, 0, 6,30.00,40.00,Tuesday
8,4.2314509761506369
2,3, 1, 3, 0, 6,40.00,50.00,Tuesday
8,4.231380937755717
2,3, 1, 3, 0, 6,50.00,60.00,Tuesday
8,4.231319363634353
2,3, 1, 3, 0, 6, 0.00,60.00,Tuesday
95,8.68428188432123
2,3, 1, 3, 0, 7, 0.00,10.00,Tuesday
8,4.292759039893495
2,3, 1, 3, 0, 7,10.00,20.00,Tuesday
8,4.3538741219190479
2,3, 1, 3, 0, 7,20.00,30.00,Tuesday
8,4.4146638377223879
2,3, 1, 3, 0, 7,30.00,40.00,Tuesday
8,4.475121416032191
2,3, 1, 3, 0, 7,40.00,50.00,Tuesday
8,4.535246046040725
2,3, 1, 3, 0, 7,50.00,60.00,Tuesday
8,4.59504070797907
2,3, 1, 3, 0, 7, 0.00,60.00,Tuesday
95,8.584281963809188
2,3, 1, 3, 0, 8, 0.00,10.00,Tuesday
8,4.679960236152743
2,3, 1, 3, 0, 8,10.00,20.00,Tuesday
8,4.764665199457666
2,3, 1, 3, 0, 8,20.00,30.00,Tuesday
8,4.849156269114058
2,3, 1, 3, 0, 8,30.00,40.00,Tuesday
8,4.93342952753678
2,3, 1, 3, 0, 8,40.00,50.00,Tuesday
8,5.017495140281902
2,3, 1, 3, 0, 8,50.00,60.00,Tuesday
8,5.101339613248406
2,3, 1, 3, 0, 8, 0.00,60.00,Tuesday
95,8.509027715718773
2,3, 1, 3, 0, 9, 0.00,10.00,Tuesday
8,5.196538521225089
2,3, 1, 3, 0, 9,10.00,20.00,Tuesday
8,5.290258458630348
2,3, 1, 3, 0, 9,20.00,30.00,Tuesday
8,5.382485904373809
2,3, 1, 3, 0, 9,30.00,40.00,Tuesday
8,5.473202755945753
2,3, 1, 3, 0, 9,40.00,50.00,Tuesday
8,5.562387011312535
2,3, 1, 3, 0, 9,50.00,60.00,Tuesday
8,5.650029092378358
2,3, 1, 3, 0, 9, 0.00,60.00,Tuesday
95,8.499173930917844
2,3, 1, 3, 0,10, 0.00,10.00,Tuesday
8,5.991147353708552
2,3, 1, 3, 0,10,10.00,20.00,Tuesday
8,6.328741717163092
2,3, 1, 3, 0,10,20.00,30.00,Tuesday
8,6.662758346777426
2,3, 1, 3, 0,10,30.00,40.00,Tuesday
8,6.99314548644228
2,3, 1, 3, 0,10,40.00,50.00,Tuesday
8,7.319846979682958
2,3, 1, 3, 0,10,50.00,60.00,Tuesday
8,7.642812974097298
2,3, 1, 3, 0,10, 0.00,60.00,Tuesday
95,8.571447915252559
2,3, 1, 3, 0,11, 0.00,10.00,Tuesday
8,7.7917276914237789
2,3, 1, 3, 0,11,10.00,20.00,Tuesday
8,7.9376735315203
2,3, 1, 3, 0,11,20.00,30.00,Tuesday
8,8.080612983297029
2,3, 1, 3, 0,11,30.00,40.00,Tuesday
8,8.220479571497214
2,3, 1, 3, 0,11,40.00,50.00,Tuesday
8,8.357236601292641
2,3, 1, 3, 0,11,50.00,60.00,Tuesday
8,8.490836033060413
2,3, 1, 3, 0,11, 0.00,60.00,Tuesday
95,8.822670826490596
2,3, 1, 3, 0,12, 0.00,10.00,Tuesday
8,8.625871896177259
2,3, 1, 3, 0,12,10.00,20.00,Tuesday
8,8.76042599665188
2,3, 1, 3, 0,12,20.00,30.00,Tuesday
8,8.89450310617154
2,3, 1, 3, 0,12,30.00,40.00,Tuesday
8,9.028093942799244
2,3, 1, 3, 0,12,40.00,50.00,Tuesday
8,9.161204711931776
2,3, 1, 3, 0,12,50.00,60.00,Tuesday
8,9.293824947904464
2,3, 1, 3, 0,12, 0.00,60.00,Tuesday
95,9.20027127444841
2,3, 1, 3, 0,13, 0.00,10.00,Tuesday
8,9.218518307318627
2,3, 1, 3, 0,13,10.00,20.00,Tuesday
8,9.143211442107037
2,3, 1, 3, 0,13,20.00,30.00,Tuesday
8,9.067902402078053
2,3, 1, 3, 0,13,30.00,40.00,Tuesday
8,8.9925860974449
2,3, 1, 3, 0,13,40.00,50.00,Tuesday
8,8.917267057004809
2,3, 1, 3, 0,13,50.00,60.00,Tuesday
8,8.841947939797333
2,3, 1, 3, 0,13, 0.00,60.00,Tuesday
95,9.551705390887735
2,3, 1, 3, 0,14, 0.00,10.00,Tuesday
8,8.841730791428724
2,3, 1, 3, 0,14,10.00,20.00,Tuesday
8,8.84151333929566
2,3, 1, 3, 0,14,20.00,30.00,Tuesday
8,8.84129605528332
2,3, 1, 3, 0,14,30.00,40.00,Tuesday
8,8.841077848575733
2,3, 1, 3, 0,14,40.00,50.00,Tuesday
8,8.840859158928703
2,3, 1, 3, 0,14,50.00,60.00,Tuesday
8,8.84064513212617
2,3, 1, 3, 0,14, 0.00,60.00,Tuesday
95,9.898361950342656
2,3, 1, 3, 0,15, 0.00,10.00,Tuesday
8,8.867190811769749
2,3, 1, 3, 0,15,10.00,20.00,Tuesday
8,8.893352581159496
2,3, 1, 3, 0,15,20.00,30.00,Tuesday
8,8.919138071073272
2,3, 1, 3, 0,15,30.00,40.00,Tuesday
8,8.944536253670393
2,3, 1, 3, 0,15,40.00,50.00,Tuesday
8,8.969544618904444
2,3, 1, 3, 0,15,50.00,60.00,Tuesday
8,8.994166920418607
2,3, 1, 3, 0,15, 0.00,60.00,Tuesday
95,10.22570949366176
2,3, 1, 3, 0,16, 0.00,10.00,Tuesday
8,8.969306323203995
2,3, 1, 3, 0,16,10.00,20.00,Tuesday
8,8.944063188692623
2,3, 1, 3, 0,16,20.00,30.00,Tuesday
8,8.918447189183143
2,3, 1, 3, 0,16,30.00,40.00,Tuesday
8,8.892447397321295
2,3, 1, 3, 0,16,40.00,50.00,Tuesday
8,8.866079364364392
2,3, 1, 3, 0,16,50.00,60.00,Tuesday
8,8.839340686532429
2,3, 1, 3, 0,16, 0.00,60.00,Tuesday
95,10.4759585781445
2,3, 1, 3, 0,17, 0.00,10.00,Tuesday
8,8.754111315923194
2,3, 1, 3, 0,17,10.00,20.00,Tuesday
8,8.66757733149673
2,3, 1, 3, 0,17,20.00,30.00,Tuesday
8,8.579745589443009
2,3, 1, 3, 0,17,30.00,40.00,Tuesday
8,8.490636126745886
2,3, 1, 3, 0,17,40.00,50.00,Tuesday
8,8.400259942042906
2,3, 1, 3, 0,17,50.00,60.00,Tuesday
8,8.308621252206024
2,3, 1, 3, 0,17, 0.00,60.00,Tuesday
95,10.610920743855412
2,3, 1, 3, 0,18, 0.00,10.00,Tuesday
8,8.308621252206024
2,3, 1, 3, 0,18,10.00,20.00,Tuesday
8,8.308621252206024
2,3, 1, 3, 0,18,20.00,30.00,Tuesday
8,8.308621252206024
2,3, 1, 3, 0,18,30.00,40.00,Tuesday
8,8.308621252206024
2,3, 1, 3, 0,18,40.00,50.00,Tuesday
8,8.308621252206024
2,3, 1, 3, 0,18,50.00,60.00,Tuesday
8,8.308621252206024
2,3, 1, 3, 0,18, 0.00,60.00,Tuesday
95,10.733284418757786
2,3, 1, 3, 0,19, 0.00,10.00,Tuesday
8,8.262256219308272
2,3, 1, 3, 0,19,10.00,20.00,Tuesday
8,8.215471603836937
2,3, 1, 3, 0,19,20.00,30.00,Tuesday
8,8.16828525564036
2,3, 1, 3, 0,19,30.00,40.00,Tuesday
8,8.120692292077
2,3, 1, 3, 0,19,40.00,50.00,Tuesday
8,8.072699433458702
2,3, 1, 3, 0,19,50.00,60.00,Tuesday
8,8.024301056093102
2,3, 1, 3, 0,19, 0.00,60.00,Tuesday
95,10.810271096986158
2,3, 1, 3, 0,20, 0.00,10.00,Tuesday
8,8.024146605255697
2,3, 1, 3, 0,20,10.00,20.00,Tuesday
8,8.023991516232702
2,3, 1, 3, 0,20,20.00,30.00,Tuesday
8,8.023841081417923
2,3, 1, 3, 0,20,30.00,40.00,Tuesday
8,8.023685558515848
2,3, 1, 3, 0,20,40.00,50.00,Tuesday
8,8.023529471228457
2,3, 1, 3, 0,20,50.00,60.00,Tuesday
8,8.023377791434604
2,3, 1, 3, 0,20, 0.00,60.00,Tuesday
95,10.852973229352588
2,3, 1, 3, 0,21, 0.00,10.00,Tuesday
8,8.023529471228457
2,3, 1, 3, 0,21,10.00,20.00,Tuesday
8,8.023685558515848
2,3, 1, 3, 0,21,20.00,30.00,Tuesday
8,8.023841081417923
2,3, 1, 3, 0,21,30.00,40.00,Tuesday
8,8.023991516232702
2,3, 1, 3, 0,21,40.00,50.00,Tuesday
8,8.024146605255697
2,3, 1, 3, 0,21,50.00,60.00,Tuesday
8,8.024301056093102
2,3, 1, 3, 0,21, 0.00,60.00,Tuesday
95,10.882054041396465
2,3, 1, 3, 0,22, 0.00,10.00,Tuesday
8,8.161747736816658
2,3, 1, 3, 0,22,10.00,20.00,Tuesday
8,8.299458029834183
2,3, 1, 3, 0,22,20.00,30.00,Tuesday
8,8.437428222005885
2,3, 1, 3, 0,22,30.00,40.00,Tuesday
8,8.575657884256174
2,3, 1, 3, 0,22,40.00,50.00,Tuesday
8,8.714150948093139
2,3, 1, 3, 0,22,50.00,60.00,Tuesday
8,8.852900041424052
2,3, 1, 3, 0,22, 0.00,60.00,Tuesday
95,10.904276940076104
2,3, 1, 3, 0,23, 0.00,10.00,Tuesday
8,8.75897909604942
2,3, 1, 3, 0,23,10.00,20.00,Tuesday
8,8.66505043821328
2,3, 1, 3, 0,23,20.00,30.00,Tuesday
8,8.571123370175294
2,3, 1, 3, 0,23,30.00,40.00,Tuesday
8,8.477191337311647
2,3, 1, 3, 0,23,40.00,50.00,Tuesday
8,8.383259697219288
2,3, 1, 3, 0,23,50.00,60.00,Tuesday
8,8.289321856231276
2,3, 1, 3, 0,23, 0.00,60.00,Tuesday
95,10.896127381454568
2,3, 1, 3, 0,24, 0.00,10.00,Tuesday
8,8.383126292796664
2,3, 1, 3, 0,24,10.00,20.00,Tuesday
8,8.476925230388876
2,3, 1, 3, 0,24,20.00,30.00,Tuesday
8,8.57072585209906
2,3, 1, 3, 0,24,30.00,40.00,Tuesday
8,8.664516891925948
2,3, 1, 3, 0,24,40.00,50.00,Tuesday
8,8.75830964291534
2,3, 1, 3, 0,24,50.00,60.00,Tuesday
8,8.852104141206079
2,3, 1, 3, 0,24, 0.00,60.00,Tuesday
95,10.856035278725506
3,3, 1, 3, 0,Tuesday
96,49.890775091048109,45.843131367257438,22,60,54.1167072137411, 8,60
2,4, 1, 4, 0, 1, 0.00,10.00,Wednesday
8,8.802965220407247
2,4, 1, 4, 0, 1,10.00,20.00,Wednesday
8,8.753429205065274
2,4, 1, 4, 0, 1,20.00,30.00,Wednesday
8,8.703509764501345
2,4, 1, 4, 0, 1,30.00,40.00,Wednesday
8,8.65320183451891
2,4, 1, 4, 0, 1,40.00,50.00,Wednesday
8,8.602503735723568
2,4, 1, 4, 0, 1,50.00,60.00,Wednesday
8,8.551426476840343
2,4, 1, 4, 0, 1, 0.00,60.00,Wednesday
95,10.804463522603749
2,4, 1, 4, 0, 2, 0.00,10.00,Wednesday
8,8.696518938852572
2,4, 1, 4, 0, 2,10.00,20.00,Wednesday
8,8.840926169245556
2,4, 1, 4, 0, 2,20.00,30.00,Wednesday